<?xml version="1.0"?><VTKFile type="UnstructuredGrid" version="0.1" byte_order="LittleEndian">
<UnstructuredGrid>
<Piece NumberOfPoints="22" NumberOfCells="60">
<Points>
<DataArray type="Float64" NumberOfComponents="3" format="ascii">
 0.000000000000000e+00 -1.000000000000000e-03 0.000000000000000e+00 1.000000000000000e-01 -1.000000000000000e-03 0.000000000000000e+00 0.000000000000000e+00 0.000000000000000e+00 0.000000000000000e+00 1.000000000000000e-01 0.000000000000000e+00 0.000000000000000e+00 2.000000000000000e-01 -1.000000000000000e-03 0.000000000000000e+00 2.000000000000000e-01 0.000000000000000e+00 0.000000000000000e+00 3.000000000000000e-01 -1.000000000000000e-03 0.000000000000000e+00 3.000000000000000e-01 0.000000000000000e+00 0.000000000000000e+00 4.000000000000000e-01 -1.000000000000000e-03 0.000000000000000e+00 4.000000000000000e-01 0.000000000000000e+00 0.000000000000000e+00 5.000000000000000e-01 -1.000000000000000e-03 0.000000000000000e+00 5.000000000000000e-01 0.000000000000000e+00 0.000000000000000e+00 6.000000000000000e-01 -1.000000000000000e-03 0.000000000000000e+00 6.000000000000000e-01 0.000000000000000e+00 0.000000000000000e+00 7.000000000000000e-01 -1.000000000000000e-03 0.000000000000000e+00 7.000000000000000e-01 0.000000000000000e+00 0.000000000000000e+00 7.999999999999999e-01 -1.000000000000000e-03 0.000000000000000e+00 7.999999999999999e-01 0.000000000000000e+00 0.000000000000000e+00 8.999999999999999e-01 -1.000000000000000e-03 0.000000000000000e+00 8.999999999999999e-01 0.000000000000000e+00 0.000000000000000e+00 1.000000000000000e+00 -1.000000000000000e-03 0.000000000000000e+00 1.000000000000000e+00 0.000000000000000e+00 0.000000000000000e+00
</DataArray>
</Points>
<Cells>
<DataArray type="Int32" Name="connectivity" format="ascii">
 0 1 1 2 0 2 1 3 2 3 1 2 1 4 3 4 1 3 4 5 3 5 3 4 4 6 5 6 4 5 6 7 5 7 5 6 6 8 7 8 6 7 8 9 7 9 7 8 8 10 9 10 8 9 10 11 9 11 9 10 10 12 11 12 10 11 12 13 11 13 11 12 12 14 13 14 12 13 14 15 13 15 13 14 14 16 15 16 14 15 16 17 15 17 15 16 16 18 17 18 16 17 18 19 17 19 17 18 18 20 19 20 18 19 20 21 19 21 19 20
</DataArray>
<DataArray type="Int32" Name="offsets" format="ascii">
 2 4 6 8 10 12 14 16 18 20 22 24 26 28 30 32 34 36 38 40 42 44 46 48 50 52 54 56 58 60 62 64 66 68 70 72 74 76 78 80 82 84 86 88 90 92 94 96 98 100 102 104 106 108 110 112 114 116 118 120
</DataArray>
<DataArray type="UInt8" Name="types" format="ascii">
 3 3 3 3 3 3 3 3 3 3 3 3 3 3 3 3 3 3 3 3 3 3 3 3 3 3 3 3 3 3 3 3 3 3 3 3 3 3 3 3 3 3 3 3 3 3 3 3 3 3 3 3 3 3 3 3 3 3 3 3
</DataArray>
</Cells>
<PointData>
<DataArray Name="AtContactNode" type="Float64" format="ascii">
 0.000000000000000e+00 0.000000000000000e+00 0.000000000000000e+00 0.000000000000000e+00 0.000000000000000e+00 0.000000000000000e+00 0.000000000000000e+00 0.000000000000000e+00 0.000000000000000e+00 0.000000000000000e+00 0.000000000000000e+00 0.000000000000000e+00 0.000000000000000e+00 0.000000000000000e+00 0.000000000000000e+00 0.000000000000000e+00 0.000000000000000e+00 0.000000000000000e+00 0.000000000000000e+00 0.000000000000000e+00 0.000000000000000e+00 0.000000000000000e+00
</DataArray>
<DataArray Name="NetDoping" type="Float64" format="ascii">
 1.000000000000000e+18 1.000000000000000e+18 1.000000000000000e+18 1.000000000000000e+18 1.000000000000000e+18 1.000000000000000e+18 1.000000000000000e+18 1.000000000000000e+18 1.000000000000000e+18 1.000000000000000e+18 1.000000000000000e+18 1.000000000000000e+18 1.000000000000000e+18 1.000000000000000e+18 1.000000000000000e+18 1.000000000000000e+18 1.000000000000000e+18 1.000000000000000e+18 1.000000000000000e+18 1.000000000000000e+18 1.000000000000000e+18 1.000000000000000e+18
</DataArray>
<DataArray Name="NodeVolume" type="Float64" format="ascii">
 2.500000000000000e-05 7.500000000000001e-05 2.500000000000000e-05 7.500000000000001e-05 7.499999999999999e-05 7.499999999999999e-05 7.500000000000002e-05 7.500000000000001e-05 7.499999999999998e-05 7.499999999999998e-05 7.500000000000001e-05 7.500000000000001e-05 7.499999999999993e-05 7.499999999999993e-05 7.500000000000003e-05 7.500000000000003e-05 7.499999999999993e-05 7.499999999999993e-05 7.500000000000005e-05 7.500000000000005e-05 2.500000000000002e-05 2.500000000000002e-05
</DataArray>
<DataArray Name="SurfaceArea" type="Float64" format="ascii">
 0.000000000000000e+00 0.000000000000000e+00 5.000000000000000e-02 1.000000000000000e-01 0.000000000000000e+00 1.000000000000000e-01 0.000000000000000e+00 1.000000000000000e-01 0.000000000000000e+00 9.999999999999998e-02 0.000000000000000e+00 9.999999999999998e-02 0.000000000000000e+00 9.999999999999998e-02 0.000000000000000e+00 9.999999999999998e-02 0.000000000000000e+00 9.999999999999998e-02 0.000000000000000e+00 1.000000000000000e-01 0.000000000000000e+00 5.000000000000004e-02
</DataArray>
<DataArray Name="x" type="Float64" format="ascii">
 0.000000000000000e+00 1.000000000000000e-01 0.000000000000000e+00 1.000000000000000e-01 2.000000000000000e-01 2.000000000000000e-01 3.000000000000000e-01 3.000000000000000e-01 4.000000000000000e-01 4.000000000000000e-01 5.000000000000000e-01 5.000000000000000e-01 6.000000000000000e-01 6.000000000000000e-01 7.000000000000000e-01 7.000000000000000e-01 7.999999999999999e-01 7.999999999999999e-01 8.999999999999999e-01 8.999999999999999e-01 1.000000000000000e+00 1.000000000000000e+00
</DataArray>
<DataArray Name="y" type="Float64" format="ascii">
 -1.000000000000000e-03 -1.000000000000000e-03 0.000000000000000e+00 0.000000000000000e+00 -1.000000000000000e-03 0.000000000000000e+00 -1.000000000000000e-03 0.000000000000000e+00 -1.000000000000000e-03 0.000000000000000e+00 -1.000000000000000e-03 0.000000000000000e+00 -1.000000000000000e-03 0.000000000000000e+00 -1.000000000000000e-03 0.000000000000000e+00 -1.000000000000000e-03 0.000000000000000e+00 -1.000000000000000e-03 0.000000000000000e+00 -1.000000000000000e-03 0.000000000000000e+00
</DataArray>
</PointData>
<CellData>
<DataArray Name="EdgeCouple" type="Float64" format="ascii">
 5.000000000000000e-04 0.000000000000000e+00 5.000000000000000e-02 1.000000000000000e-01 5.000000000000000e-04 0.000000000000000e+00 5.000000000000000e-04 0.000000000000000e+00 1.000000000000000e-01 9.999999999999998e-02 5.000000000000000e-04 0.000000000000000e+00 5.000000000000000e-04 0.000000000000000e+00 9.999999999999998e-02 1.000000000000000e-01 5.000000000000000e-04 0.000000000000000e+00 5.000000000000000e-04 0.000000000000000e+00 1.000000000000000e-01 9.999999999999998e-02 5.000000000000000e-04 0.000000000000000e+00 5.000000000000000e-04 0.000000000000000e+00 9.999999999999998e-02 1.000000000000000e-01 5.000000000000000e-04 0.000000000000000e+00 5.000000000000000e-04 0.000000000000000e+00 1.000000000000000e-01 9.999999999999987e-02 5.000000000000000e-04 0.000000000000000e+00 5.000000000000000e-04 0.000000000000000e+00 9.999999999999987e-02 1.000000000000001e-01 5.000000000000000e-04 0.000000000000000e+00 5.000000000000000e-04 0.000000000000000e+00 1.000000000000001e-01 9.999999999999987e-02 5.000000000000000e-04 0.000000000000000e+00 5.000000000000000e-04 0.000000000000000e+00 9.999999999999987e-02 1.000000000000001e-01 5.000000000000000e-04 0.000000000000000e+00 5.000000000000000e-04 0.000000000000000e+00 1.000000000000001e-01 5.000000000000004e-02 5.000000000000000e-04 0.000000000000000e+00
</DataArray>
<DataArray Name="EdgeInverseLength" type="Float64" format="ascii">
 1.000000000000000e+01 9.999500037496874e+00 1.000000000000000e+03 1.000000000000000e+03 1.000000000000000e+01 9.999500037496874e+00 1.000000000000000e+01 9.999500037496874e+00 1.000000000000000e+03 1.000000000000000e+03 1.000000000000000e+01 9.999500037496874e+00 9.999999999999996e+00 9.999500037496871e+00 1.000000000000000e+03 1.000000000000000e+03 9.999999999999996e+00 9.999500037496871e+00 1.000000000000000e+01 9.999500037496878e+00 1.000000000000000e+03 1.000000000000000e+03 1.000000000000000e+01 9.999500037496878e+00 1.000000000000000e+01 9.999500037496878e+00 1.000000000000000e+03 1.000000000000000e+03 1.000000000000000e+01 9.999500037496878e+00 1.000000000000000e+01 9.999500037496878e+00 1.000000000000000e+03 1.000000000000000e+03 1.000000000000000e+01 9.999500037496878e+00 1.000000000000000e+01 9.999500037496878e+00 1.000000000000000e+03 1.000000000000000e+03 1.000000000000000e+01 9.999500037496878e+00 1.000000000000000e+01 9.999500037496878e+00 1.000000000000000e+03 1.000000000000000e+03 1.000000000000000e+01 9.999500037496878e+00 1.000000000000000e+01 9.999500037496878e+00 1.000000000000000e+03 1.000000000000000e+03 1.000000000000000e+01 9.999500037496878e+00 9.999999999999991e+00 9.999500037496867e+00 1.000000000000000e+03 1.000000000000000e+03 9.999999999999991e+00 9.999500037496867e+00
</DataArray>
<DataArray Name="EdgeLength" type="Float64" format="ascii">
 1.000000000000000e-01 1.000049998750063e-01 1.000000000000000e-03 1.000000000000000e-03 1.000000000000000e-01 1.000049998750063e-01 1.000000000000000e-01 1.000049998750063e-01 1.000000000000000e-03 1.000000000000000e-03 1.000000000000000e-01 1.000049998750063e-01 1.000000000000000e-01 1.000049998750063e-01 1.000000000000000e-03 1.000000000000000e-03 1.000000000000000e-01 1.000049998750063e-01 9.999999999999998e-02 1.000049998750062e-01 1.000000000000000e-03 1.000000000000000e-03 9.999999999999998e-02 1.000049998750062e-01 9.999999999999998e-02 1.000049998750062e-01 1.000000000000000e-03 1.000000000000000e-03 9.999999999999998e-02 1.000049998750062e-01 9.999999999999998e-02 1.000049998750062e-01 1.000000000000000e-03 1.000000000000000e-03 9.999999999999998e-02 1.000049998750062e-01 9.999999999999998e-02 1.000049998750062e-01 1.000000000000000e-03 1.000000000000000e-03 9.999999999999998e-02 1.000049998750062e-01 9.999999999999998e-02 1.000049998750062e-01 1.000000000000000e-03 1.000000000000000e-03 9.999999999999998e-02 1.000049998750062e-01 9.999999999999998e-02 1.000049998750062e-01 1.000000000000000e-03 1.000000000000000e-03 9.999999999999998e-02 1.000049998750062e-01 1.000000000000001e-01 1.000049998750063e-01 1.000000000000000e-03 1.000000000000000e-03 1.000000000000001e-01 1.000049998750063e-01
</DataArray>
<DataArray Name="unitx" type="Float64" format="ascii">
 1.000000000000000e+00 -9.999500037496875e-01 0.000000000000000e+00 0.000000000000000e+00 1.000000000000000e+00 -9.999500037496875e-01 1.000000000000000e+00 9.999500037496875e-01 0.000000000000000e+00 0.000000000000000e+00 1.000000000000000e+00 9.999500037496875e-01 1.000000000000000e+00 9.999500037496875e-01 0.000000000000000e+00 0.000000000000000e+00 1.000000000000000e+00 9.999500037496875e-01 1.000000000000000e+00 9.999500037496877e-01 0.000000000000000e+00 0.000000000000000e+00 1.000000000000000e+00 9.999500037496877e-01 1.000000000000000e+00 9.999500037496877e-01 0.000000000000000e+00 0.000000000000000e+00 1.000000000000000e+00 9.999500037496877e-01 1.000000000000000e+00 9.999500037496877e-01 0.000000000000000e+00 0.000000000000000e+00 1.000000000000000e+00 9.999500037496877e-01 1.000000000000000e+00 9.999500037496877e-01 0.000000000000000e+00 0.000000000000000e+00 1.000000000000000e+00 9.999500037496877e-01 1.000000000000000e+00 9.999500037496877e-01 0.000000000000000e+00 0.000000000000000e+00 1.000000000000000e+00 9.999500037496877e-01 1.000000000000000e+00 9.999500037496877e-01 0.000000000000000e+00 0.000000000000000e+00 1.000000000000000e+00 9.999500037496877e-01 1.000000000000000e+00 9.999500037496877e-01 0.000000000000000e+00 0.000000000000000e+00 1.000000000000000e+00 9.999500037496877e-01
</DataArray>
<DataArray Name="unity" type="Float64" format="ascii">
 0.000000000000000e+00 9.999500037496875e-03 1.000000000000000e+00 1.000000000000000e+00 0.000000000000000e+00 9.999500037496875e-03 0.000000000000000e+00 -9.999500037496875e-03 1.000000000000000e+00 1.000000000000000e+00 0.000000000000000e+00 -9.999500037496875e-03 0.000000000000000e+00 -9.999500037496872e-03 1.000000000000000e+00 1.000000000000000e+00 0.000000000000000e+00 -9.999500037496872e-03 0.000000000000000e+00 -9.999500037496879e-03 1.000000000000000e+00 1.000000000000000e+00 0.000000000000000e+00 -9.999500037496879e-03 0.000000000000000e+00 -9.999500037496879e-03 1.000000000000000e+00 1.000000000000000e+00 0.000000000000000e+00 -9.999500037496879e-03 0.000000000000000e+00 -9.999500037496879e-03 1.000000000000000e+00 1.000000000000000e+00 0.000000000000000e+00 -9.999500037496879e-03 0.000000000000000e+00 -9.999500037496879e-03 1.000000000000000e+00 1.000000000000000e+00 0.000000000000000e+00 -9.999500037496879e-03 0.000000000000000e+00 -9.999500037496879e-03 1.000000000000000e+00 1.000000000000000e+00 0.000000000000000e+00 -9.999500037496879e-03 0.000000000000000e+00 -9.999500037496879e-03 1.000000000000000e+00 1.000000000000000e+00 0.000000000000000e+00 -9.999500037496879e-03 0.000000000000000e+00 -9.999500037496868e-03 1.000000000000000e+00 1.000000000000000e+00 0.000000000000000e+00 -9.999500037496868e-03
</DataArray>
</CellData>
</Piece>
<Piece NumberOfPoints="22" NumberOfCells="60">
<Points>
<DataArray type="Float64" NumberOfComponents="3" format="ascii">
 0.000000000000000e+00 1.000000000000000e+00 0.000000000000000e+00 1.000000000000000e-01 1.000000000000000e+00 0.000000000000000e+00 0.000000000000000e+00 1.001000000000000e+00 0.000000000000000e+00 1.000000000000000e-01 1.001000000000000e+00 0.000000000000000e+00 2.000000000000000e-01 1.000000000000000e+00 0.000000000000000e+00 2.000000000000000e-01 1.001000000000000e+00 0.000000000000000e+00 3.000000000000000e-01 1.000000000000000e+00 0.000000000000000e+00 3.000000000000000e-01 1.001000000000000e+00 0.000000000000000e+00 4.000000000000000e-01 1.000000000000000e+00 0.000000000000000e+00 4.000000000000000e-01 1.001000000000000e+00 0.000000000000000e+00 5.000000000000000e-01 1.000000000000000e+00 0.000000000000000e+00 5.000000000000000e-01 1.001000000000000e+00 0.000000000000000e+00 6.000000000000000e-01 1.000000000000000e+00 0.000000000000000e+00 6.000000000000000e-01 1.001000000000000e+00 0.000000000000000e+00 7.000000000000000e-01 1.000000000000000e+00 0.000000000000000e+00 7.000000000000000e-01 1.001000000000000e+00 0.000000000000000e+00 7.999999999999999e-01 1.000000000000000e+00 0.000000000000000e+00 7.999999999999999e-01 1.001000000000000e+00 0.000000000000000e+00 8.999999999999999e-01 1.000000000000000e+00 0.000000000000000e+00 8.999999999999999e-01 1.001000000000000e+00 0.000000000000000e+00 1.000000000000000e+00 1.000000000000000e+00 0.000000000000000e+00 1.000000000000000e+00 1.001000000000000e+00 0.000000000000000e+00
</DataArray>
</Points>
<Cells>
<DataArray type="Int32" Name="connectivity" format="ascii">
 0 1 1 2 0 2 1 3 2 3 1 2 1 4 3 4 1 3 4 5 3 5 3 4 4 6 5 6 4 5 6 7 5 7 5 6 6 8 7 8 6 7 8 9 7 9 7 8 8 10 9 10 8 9 10 11 9 11 9 10 10 12 11 12 10 11 12 13 11 13 11 12 12 14 13 14 12 13 14 15 13 15 13 14 14 16 15 16 14 15 16 17 15 17 15 16 16 18 17 18 16 17 18 19 17 19 17 18 18 20 19 20 18 19 20 21 19 21 19 20
</DataArray>
<DataArray type="Int32" Name="offsets" format="ascii">
 2 4 6 8 10 12 14 16 18 20 22 24 26 28 30 32 34 36 38 40 42 44 46 48 50 52 54 56 58 60 62 64 66 68 70 72 74 76 78 80 82 84 86 88 90 92 94 96 98 100 102 104 106 108 110 112 114 116 118 120
</DataArray>
<DataArray type="UInt8" Name="types" format="ascii">
 3 3 3 3 3 3 3 3 3 3 3 3 3 3 3 3 3 3 3 3 3 3 3 3 3 3 3 3 3 3 3 3 3 3 3 3 3 3 3 3 3 3 3 3 3 3 3 3 3 3 3 3 3 3 3 3 3 3 3 3
</DataArray>
</Cells>
<PointData>
<DataArray Name="AtContactNode" type="Float64" format="ascii">
 0.000000000000000e+00 0.000000000000000e+00 0.000000000000000e+00 0.000000000000000e+00 0.000000000000000e+00 0.000000000000000e+00 0.000000000000000e+00 0.000000000000000e+00 0.000000000000000e+00 0.000000000000000e+00 0.000000000000000e+00 0.000000000000000e+00 0.000000000000000e+00 0.000000000000000e+00 0.000000000000000e+00 0.000000000000000e+00 0.000000000000000e+00 0.000000000000000e+00 0.000000000000000e+00 0.000000000000000e+00 0.000000000000000e+00 0.000000000000000e+00
</DataArray>
<DataArray Name="NetDoping" type="Float64" format="ascii">
 -1.000000000000000e+15 -1.000000000000000e+15 -1.000000000000000e+15 -1.000000000000000e+15 -1.000000000000000e+15 -1.000000000000000e+15 -1.000000000000000e+15 -1.000000000000000e+15 -1.000000000000000e+15 -1.000000000000000e+15 -1.000000000000000e+15 -1.000000000000000e+15 -1.000000000000000e+15 -1.000000000000000e+15 -1.000000000000000e+15 -1.000000000000000e+15 -1.000000000000000e+15 -1.000000000000000e+15 -1.000000000000000e+15 -1.000000000000000e+15 -1.000000000000000e+15 -1.000000000000000e+15
</DataArray>
<DataArray Name="NodeVolume" type="Float64" format="ascii">
 2.499999999999725e-05 7.499999999999174e-05 2.499999999999725e-05 7.499999999999174e-05 7.499999999999174e-05 7.499999999999173e-05 7.499999999999177e-05 7.499999999999177e-05 7.499999999999171e-05 7.499999999999171e-05 7.499999999999174e-05 7.499999999999174e-05 7.499999999999166e-05 7.499999999999166e-05 7.499999999999178e-05 7.499999999999178e-05 7.499999999999166e-05 7.499999999999166e-05 7.499999999999179e-05 7.499999999999179e-05 2.499999999999727e-05 2.499999999999727e-05
</DataArray>
<DataArray Name="SurfaceArea" type="Float64" format="ascii">
 5.000000000000000e-02 1.000000000000000e-01 0.000000000000000e+00 0.000000000000000e+00 1.000000000000000e-01 0.000000000000000e+00 1.000000000000000e-01 0.000000000000000e+00 9.999999999999998e-02 0.000000000000000e+00 9.999999999999998e-02 0.000000000000000e+00 9.999999999999998e-02 0.000000000000000e+00 9.999999999999998e-02 0.000000000000000e+00 9.999999999999998e-02 0.000000000000000e+00 1.000000000000000e-01 0.000000000000000e+00 5.000000000000004e-02 0.000000000000000e+00
</DataArray>
<DataArray Name="x" type="Float64" format="ascii">
 0.000000000000000e+00 1.000000000000000e-01 0.000000000000000e+00 1.000000000000000e-01 2.000000000000000e-01 2.000000000000000e-01 3.000000000000000e-01 3.000000000000000e-01 4.000000000000000e-01 4.000000000000000e-01 5.000000000000000e-01 5.000000000000000e-01 6.000000000000000e-01 6.000000000000000e-01 7.000000000000000e-01 7.000000000000000e-01 7.999999999999999e-01 7.999999999999999e-01 8.999999999999999e-01 8.999999999999999e-01 1.000000000000000e+00 1.000000000000000e+00
</DataArray>
<DataArray Name="y" type="Float64" format="ascii">
 1.000000000000000e+00 1.000000000000000e+00 1.001000000000000e+00 1.001000000000000e+00 1.000000000000000e+00 1.001000000000000e+00 1.000000000000000e+00 1.001000000000000e+00 1.000000000000000e+00 1.001000000000000e+00 1.000000000000000e+00 1.001000000000000e+00 1.000000000000000e+00 1.001000000000000e+00 1.000000000000000e+00 1.001000000000000e+00 1.000000000000000e+00 1.001000000000000e+00 1.000000000000000e+00 1.001000000000000e+00 1.000000000000000e+00 1.001000000000000e+00
</DataArray>
</PointData>
<CellData>
<DataArray Name="EdgeCouple" type="Float64" format="ascii">
 4.999999999999449e-04 0.000000000000000e+00 5.000000000000000e-02 1.000000000000000e-01 4.999999999999449e-04 0.000000000000000e+00 4.999999999999449e-04 0.000000000000000e+00 1.000000000000000e-01 9.999999999999998e-02 4.999999999999449e-04 0.000000000000000e+00 4.999999999999449e-04 0.000000000000000e+00 9.999999999999998e-02 1.000000000000000e-01 4.999999999999449e-04 0.000000000000000e+00 4.999999999999449e-04 0.000000000000000e+00 1.000000000000000e-01 9.999999999999998e-02 4.999999999999449e-04 0.000000000000000e+00 4.999999999999449e-04 0.000000000000000e+00 9.999999999999998e-02 1.000000000000000e-01 4.999999999999449e-04 0.000000000000000e+00 4.999999999999449e-04 0.000000000000000e+00 1.000000000000000e-01 9.999999999999987e-02 4.999999999999449e-04 0.000000000000000e+00 4.999999999999449e-04 0.000000000000000e+00 9.999999999999987e-02 1.000000000000001e-01 4.999999999999449e-04 0.000000000000000e+00 4.999999999999449e-04 0.000000000000000e+00 1.000000000000001e-01 9.999999999999987e-02 4.999999999999449e-04 0.000000000000000e+00 4.999999999999449e-04 0.000000000000000e+00 9.999999999999987e-02 1.000000000000001e-01 4.999999999999449e-04 0.000000000000000e+00 4.999999999999449e-04 0.000000000000000e+00 1.000000000000001e-01 5.000000000000004e-02 4.999999999999449e-04 0.000000000000000e+00
</DataArray>
<DataArray Name="EdgeInverseLength" type="Float64" format="ascii">
 1.000000000000000e+01 9.999500037496874e+00 1.000000000000110e+03 1.000000000000110e+03 1.000000000000000e+01 9.999500037496874e+00 1.000000000000000e+01 9.999500037496874e+00 1.000000000000110e+03 1.000000000000110e+03 1.000000000000000e+01 9.999500037496874e+00 9.999999999999996e+00 9.999500037496871e+00 1.000000000000110e+03 1.000000000000110e+03 9.999999999999996e+00 9.999500037496871e+00 1.000000000000000e+01 9.999500037496878e+00 1.000000000000110e+03 1.000000000000110e+03 1.000000000000000e+01 9.999500037496878e+00 1.000000000000000e+01 9.999500037496878e+00 1.000000000000110e+03 1.000000000000110e+03 1.000000000000000e+01 9.999500037496878e+00 1.000000000000000e+01 9.999500037496878e+00 1.000000000000110e+03 1.000000000000110e+03 1.000000000000000e+01 9.999500037496878e+00 1.000000000000000e+01 9.999500037496878e+00 1.000000000000110e+03 1.000000000000110e+03 1.000000000000000e+01 9.999500037496878e+00 1.000000000000000e+01 9.999500037496878e+00 1.000000000000110e+03 1.000000000000110e+03 1.000000000000000e+01 9.999500037496878e+00 1.000000000000000e+01 9.999500037496878e+00 1.000000000000110e+03 1.000000000000110e+03 1.000000000000000e+01 9.999500037496878e+00 9.999999999999991e+00 9.999500037496867e+00 1.000000000000110e+03 1.000000000000110e+03 9.999999999999991e+00 9.999500037496867e+00
</DataArray>
<DataArray Name="EdgeLength" type="Float64" format="ascii">
 1.000000000000000e-01 1.000049998750063e-01 9.999999999998899e-04 9.999999999998899e-04 1.000000000000000e-01 1.000049998750063e-01 1.000000000000000e-01 1.000049998750063e-01 9.999999999998899e-04 9.999999999998899e-04 1.000000000000000e-01 1.000049998750063e-01 1.000000000000000e-01 1.000049998750063e-01 9.999999999998899e-04 9.999999999998899e-04 1.000000000000000e-01 1.000049998750063e-01 9.999999999999998e-02 1.000049998750062e-01 9.999999999998899e-04 9.999999999998899e-04 9.999999999999998e-02 1.000049998750062e-01 9.999999999999998e-02 1.000049998750062e-01 9.999999999998899e-04 9.999999999998899e-04 9.999999999999998e-02 1.000049998750062e-01 9.999999999999998e-02 1.000049998750062e-01 9.999999999998899e-04 9.999999999998899e-04 9.999999999999998e-02 1.000049998750062e-01 9.999999999999998e-02 1.000049998750062e-01 9.999999999998899e-04 9.999999999998899e-04 9.999999999999998e-02 1.000049998750062e-01 9.999999999999998e-02 1.000049998750062e-01 9.999999999998899e-04 9.999999999998899e-04 9.999999999999998e-02 1.000049998750062e-01 9.999999999999998e-02 1.000049998750062e-01 9.999999999998899e-04 9.999999999998899e-04 9.999999999999998e-02 1.000049998750062e-01 1.000000000000001e-01 1.000049998750063e-01 9.999999999998899e-04 9.999999999998899e-04 1.000000000000001e-01 1.000049998750063e-01
</DataArray>
<DataArray Name="unitx" type="Float64" format="ascii">
 1.000000000000000e+00 -9.999500037496875e-01 0.000000000000000e+00 0.000000000000000e+00 1.000000000000000e+00 -9.999500037496875e-01 1.000000000000000e+00 9.999500037496875e-01 0.000000000000000e+00 0.000000000000000e+00 1.000000000000000e+00 9.999500037496875e-01 1.000000000000000e+00 9.999500037496875e-01 0.000000000000000e+00 0.000000000000000e+00 1.000000000000000e+00 9.999500037496875e-01 1.000000000000000e+00 9.999500037496877e-01 0.000000000000000e+00 0.000000000000000e+00 1.000000000000000e+00 9.999500037496877e-01 1.000000000000000e+00 9.999500037496877e-01 0.000000000000000e+00 0.000000000000000e+00 1.000000000000000e+00 9.999500037496877e-01 1.000000000000000e+00 9.999500037496877e-01 0.000000000000000e+00 0.000000000000000e+00 1.000000000000000e+00 9.999500037496877e-01 1.000000000000000e+00 9.999500037496877e-01 0.000000000000000e+00 0.000000000000000e+00 1.000000000000000e+00 9.999500037496877e-01 1.000000000000000e+00 9.999500037496877e-01 0.000000000000000e+00 0.000000000000000e+00 1.000000000000000e+00 9.999500037496877e-01 1.000000000000000e+00 9.999500037496877e-01 0.000000000000000e+00 0.000000000000000e+00 1.000000000000000e+00 9.999500037496877e-01 1.000000000000000e+00 9.999500037496877e-01 0.000000000000000e+00 0.000000000000000e+00 1.000000000000000e+00 9.999500037496877e-01
</DataArray>
<DataArray Name="unity" type="Float64" format="ascii">
 0.000000000000000e+00 9.999500037495774e-03 1.000000000000000e+00 1.000000000000000e+00 0.000000000000000e+00 9.999500037495774e-03 0.000000000000000e+00 -9.999500037495774e-03 1.000000000000000e+00 1.000000000000000e+00 0.000000000000000e+00 -9.999500037495774e-03 0.000000000000000e+00 -9.999500037495770e-03 1.000000000000000e+00 1.000000000000000e+00 0.000000000000000e+00 -9.999500037495770e-03 0.000000000000000e+00 -9.999500037495777e-03 1.000000000000000e+00 1.000000000000000e+00 0.000000000000000e+00 -9.999500037495777e-03 0.000000000000000e+00 -9.999500037495777e-03 1.000000000000000e+00 1.000000000000000e+00 0.000000000000000e+00 -9.999500037495777e-03 0.000000000000000e+00 -9.999500037495777e-03 1.000000000000000e+00 1.000000000000000e+00 0.000000000000000e+00 -9.999500037495777e-03 0.000000000000000e+00 -9.999500037495777e-03 1.000000000000000e+00 1.000000000000000e+00 0.000000000000000e+00 -9.999500037495777e-03 0.000000000000000e+00 -9.999500037495777e-03 1.000000000000000e+00 1.000000000000000e+00 0.000000000000000e+00 -9.999500037495777e-03 0.000000000000000e+00 -9.999500037495777e-03 1.000000000000000e+00 1.000000000000000e+00 0.000000000000000e+00 -9.999500037495777e-03 0.000000000000000e+00 -9.999500037495767e-03 1.000000000000000e+00 1.000000000000000e+00 0.000000000000000e+00 -9.999500037495767e-03
</DataArray>
</CellData>
</Piece>
<Piece NumberOfPoints="66" NumberOfCells="300">
<Points>
<DataArray type="Float64" NumberOfComponents="3" format="ascii">