<?xml version="1.0"?><VTKFile type="UnstructuredGrid" version="0.1" byte_order="LittleEndian">
<UnstructuredGrid>
<Piece NumberOfPoints="6" NumberOfCells="9">
<Points>
<DataArray type="Float64" NumberOfComponents="3" format="ascii">
 0.000000000000000e+00 0.000000000000000e+00 0.000000000000000e+00 1.000000000000000e+00 0.000000000000000e+00 0.000000000000000e+00 0.000000000000000e+00 1.000000000000000e+00 0.000000000000000e+00 1.000000000000000e+00 1.000000000000000e+00 0.000000000000000e+00 0.000000000000000e+00 2.000000000000000e+00 0.000000000000000e+00 1.000000000000000e+00 2.000000000000000e+00 0.000000000000000e+00
</DataArray>
</Points>
<Cells>
<DataArray type="Int32" Name="connectivity" format="ascii">
 0 1 0 2 0 3 1 3 2 3 2 4 2 5 4 5 3 5
</DataArray>
<DataArray type="Int32" Name="offsets" format="ascii">
 2 4 6 8 10 12 14 16 18
</DataArray>
<DataArray type="UInt8" Name="types" format="ascii">
 3 3 3 3 3 3 3 3 3
</DataArray>
</Cells>
<PointData>
<DataArray Name="AtContactNode" type="Float64" format="ascii">
 1.000000000000000e+00 1.000000000000000e+00 0.000000000000000e+00 0.000000000000000e+00 1.000000000000000e+00 1.000000000000000e+00
</DataArray>
<DataArray Name="NodeVolume" type="Float64" format="ascii">
 2.500000000000000e-01 2.500000000000000e-01 5.000000000000000e-01 5.000000000000000e-01 2.500000000000000e-01 2.500000000000000e-01
</DataArray>
<DataArray Name="Potential" type="Float64" format="ascii">
 0.000000000000000e+00 0.000000000000000e+00 5.000000000000000e-01 5.000000000000000e-01 1.000000000000000e+00 1.000000000000000e+00
</DataArray>
<DataArray Name="Potential_prev" type="Float64" format="ascii">
 0.000000000000000e+00 0.000000000000000e+00 0.000000000000000e+00 0.000000000000000e+00 0.000000000000000e+00 0.000000000000000e+00
</DataArray>
<DataArray Name="SurfaceArea" type="Float64" format="ascii">
 5.000000000000000e-01 5.000000000000000e-01 0.000000000000000e+00 0.000000000000000e+00 5.000000000000000e-01 5.000000000000000e-01
</DataArray>
<DataArray Name="bottomnode_model" type="Float64" format="ascii">
 0.000000000000000e+00 0.000000000000000e+00 5.000000000000000e-01 5.000000000000000e-01 1.000000000000000e+00 1.000000000000000e+00
</DataArray>
<DataArray Name="bottomnode_model:Potential" type="Float64" format="ascii">
 1.000000000000000e+00 1.000000000000000e+00 1.000000000000000e+00 1.000000000000000e+00 1.000000000000000e+00 1.000000000000000e+00
</DataArray>
<DataArray Name="topnode_model" type="Float64" format="ascii">
 -1.000000000000000e+00 -1.000000000000000e+00 -5.000000000000000e-01 -5.000000000000000e-01 0.000000000000000e+00 0.000000000000000e+00
</DataArray>
<DataArray Name="topnode_model:Potential" type="Float64" format="ascii">
 1.000000000000000e+00 1.000000000000000e+00 1.000000000000000e+00 1.000000000000000e+00 1.000000000000000e+00 1.000000000000000e+00
</DataArray>
<DataArray Name="x" type="Float64" format="ascii">
 0.000000000000000e+00 1.000000000000000e+00 0.000000000000000e+00 1.000000000000000e+00 0.000000000000000e+00 1.000000000000000e+00
</DataArray>
<DataArray Name="y" type="Float64" format="ascii">
 0.000000000000000e+00 0.000000000000000e+00 1.000000000000000e+00 1.000000000000000e+00 2.000000000000000e+00 2.000000000000000e+00
</DataArray>
</PointData>
<CellData>
<DataArray Name="EdgeCouple" type="Float64" format="ascii">
 5.000000000000000e-01 5.000000000000000e-01 0.000000000000000e+00 5.000000000000000e-01 1.000000000000000e+00 5.000000000000000e-01 0.000000000000000e+00 5.000000000000000e-01 5.000000000000000e-01
</DataArray>
<DataArray Name="EdgeInverseLength" type="Float64" format="ascii">
 1.000000000000000e+00 1.000000000000000e+00 7.071067811865475e-01 1.000000000000000e+00 1.000000000000000e+00 1.000000000000000e+00 7.071067811865475e-01 1.000000000000000e+00 1.000000000000000e+00
</DataArray>
<DataArray Name="EdgeLength" type="Float64" format="ascii">
 1.000000000000000e+00 1.000000000000000e+00 1.414213562373095e+00 1.000000000000000e+00 1.000000000000000e+00 1.000000000000000e+00 1.414213562373095e+00 1.000000000000000e+00 1.000000000000000e+00
</DataArray>
<DataArray Name="Potential@n0" type="Float64" format="ascii">
 0.000000000000000e+00 0.000000000000000e+00 0.000000000000000e+00 0.000000000000000e+00 5.000000000000000e-01 5.000000000000000e-01 5.000000000000000e-01 1.000000000000000e+00 5.000000000000000e-01
</DataArray>
<DataArray Name="Potential@n1" type="Float64" format="ascii">
 0.000000000000000e+00 5.000000000000000e-01 5.000000000000000e-01 5.000000000000000e-01 5.000000000000000e-01 1.000000000000000e+00 1.000000000000000e+00 1.000000000000000e+00 1.000000000000000e+00
</DataArray>
<DataArray Name="unitx" type="Float64" format="ascii">
 1.000000000000000e+00 0.000000000000000e+00 7.071067811865475e-01 0.000000000000000e+00 1.000000000000000e+00 0.000000000000000e+00 7.071067811865475e-01 1.000000000000000e+00 0.000000000000000e+00
</DataArray>
<DataArray Name="unity" type="Float64" format="ascii">
 0.000000000000000e+00 1.000000000000000e+00 7.071067811865475e-01 1.000000000000000e+00 0.000000000000000e+00 1.000000000000000e+00 7.071067811865475e-01 0.000000000000000e+00 1.000000000000000e+00
</DataArray>
<DataArray Name="ElectricField" type="Float64" NumberOfComponents="3" format="ascii">
 0.000000000000000e+00 0.000000000000000e+00 0.000000000000000e+00 -0.000000000000000e+00 -5.000000000000000e-01 -0.000000000000000e+00 -2.499999999999999e-01 -2.499999999999999e-01 -0.000000000000000e+00 -0.000000000000000e+00 -5.000000000000000e-01 -0.000000000000000e+00 0.000000000000000e+00 0.000000000000000e+00 0.000000000000000e+00 -0.000000000000000e+00 -5.000000000000000e-01 -0.000000000000000e+00 -2.499999999999999e-01 -2.499999999999999e-01 -0.000000000000000e+00 0.000000000000000e+00 0.000000000000000e+00 0.000000000000000e+00 -0.000000000000000e+00 -5.000000000000000e-01 -0.000000000000000e+00
</DataArray>
<DataArray Name="ElectricField:Potential@n0" type="Float64" NumberOfComponents="3" format="ascii">
 1.000000000000000e+00 0.000000000000000e+00 0.000000000000000e+00 0.000000000000000e+00 1.000000000000000e+00 0.000000000000000e+00 4.999999999999999e-01 4.999999999999999e-01 0.000000000000000e+00 0.000000000000000e+00 1.000000000000000e+00 0.000000000000000e+00 1.000000000000000e+00 0.000000000000000e+00 0.000000000000000e+00 0.000000000000000e+00 1.000000000000000e+00 0.000000000000000e+00 4.999999999999999e-01 4.999999999999999e-01 0.000000000000000e+00 1.000000000000000e+00 0.000000000000000e+00 0.000000000000000e+00 0.000000000000000e+00 1.000000000000000e+00 0.000000000000000e+00
</DataArray>
<DataArray Name="ElectricField:Potential@n1" type="Float64" NumberOfComponents="3" format="ascii">
 -1.000000000000000e+00 -0.000000000000000e+00 -0.000000000000000e+00 -0.000000000000000e+00 -1.000000000000000e+00 -0.000000000000000e+00 -4.999999999999999e-01 -4.999999999999999e-01 -0.000000000000000e+00 -0.000000000000000e+00 -1.000000000000000e+00 -0.000000000000000e+00 -1.000000000000000e+00 -0.000000000000000e+00 -0.000000000000000e+00 -0.000000000000000e+00 -1.000000000000000e+00 -0.000000000000000e+00 -4.999999999999999e-01 -4.999999999999999e-01 -0.000000000000000e+00 -1.000000000000000e+00 -0.000000000000000e+00 -0.000000000000000e+00 -0.000000000000000e+00 -1.000000000000000e+00 -0.000000000000000e+00
</DataArray>
<DataArray Name="PotentialEdgeFlux" type="Float64" NumberOfComponents="3" format="ascii">
 0.000000000000000e+00 0.000000000000000e+00 0.000000000000000e+00 -0.000000000000000e+00 -1.725750000000000e-13 -0.000000000000000e+00 -8.628749999999999e-14 -8.628749999999999e-14 -0.000000000000000e+00 -0.000000000000000e+00 -1.725750000000000e-13 -0.000000000000000e+00 0.000000000000000e+00 0.000000000000000e+00 0.000000000000000e+00 -0.000000000000000e+00 -1.725750000000000e-13 -0.000000000000000e+00 -8.628749999999999e-14 -8.628749999999999e-14 -0.000000000000000e+00 0.000000000000000e+00 0.000000000000000e+00 0.000000000000000e+00 -0.000000000000000e+00 -1.725750000000000e-13 -0.000000000000000e+00
</DataArray>
<DataArray Name="PotentialEdgeFlux:Potential@n0" type="Float64" NumberOfComponents="3" format="ascii">
 3.451500000000000e-13 0.000000000000000e+00 0.000000000000000e+00 0.000000000000000e+00 3.451500000000000e-13 0.000000000000000e+00 1.725750000000000e-13 1.725750000000000e-13 0.000000000000000e+00 0.000000000000000e+00 3.451500000000000e-13 0.000000000000000e+00 3.451500000000000e-13 0.000000000000000e+00 0.000000000000000e+00 0.000000000000000e+00 3.451500000000000e-13 0.000000000000000e+00 1.725750000000000e-13 1.725750000000000e-13 0.000000000000000e+00 3.451500000000000e-13 0.000000000000000e+00 0.000000000000000e+00 0.000000000000000e+00 3.451500000000000e-13 0.000000000000000e+00
</DataArray>
<DataArray Name="PotentialEdgeFlux:Potential@n1" type="Float64" NumberOfComponents="3" format="ascii">
 -3.451500000000000e-13 -0.000000000000000e+00 -0.000000000000000e+00 -0.000000000000000e+00 -3.451500000000000e-13 -0.000000000000000e+00 -1.725750000000000e-13 -1.725750000000000e-13 -0.000000000000000e+00 -0.000000000000000e+00 -3.451500000000000e-13 -0.000000000000000e+00 -3.451500000000000e-13 -0.000000000000000e+00 -0.000000000000000e+00 -0.000000000000000e+00 -3.451500000000000e-13 -0.000000000000000e+00 -1.725750000000000e-13 -1.725750000000000e-13 -0.000000000000000e+00 -3.451500000000000e-13 -0.000000000000000e+00 -0.000000000000000e+00 -0.000000000000000e+00 -3.451500000000000e-13 -0.000000000000000e+00
</DataArray>
<DataArray Name="contactcharge_edge_bottom" type="Float64" NumberOfComponents="3" format="ascii">
 0.000000000000000e+00 0.000000000000000e+00 0.000000000000000e+00 -0.000000000000000e+00 -1.725750000000000e-13 -0.000000000000000e+00 -8.628749999999999e-14 -8.628749999999999e-14 -0.000000000000000e+00 -0.000000000000000e+00 -1.725750000000000e-13 -0.000000000000000e+00 0.000000000000000e+00 0.000000000000000e+00 0.000000000000000e+00 -0.000000000000000e+00 -1.725750000000000e-13 -0.000000000000000e+00 -8.628749999999999e-14 -8.628749999999999e-14 -0.000000000000000e+00 0.000000000000000e+00 0.000000000000000e+00 0.000000000000000e+00 -0.000000000000000e+00 -1.725750000000000e-13 -0.000000000000000e+00
</DataArray>
<DataArray Name="contactcharge_edge_top" type="Float64" NumberOfComponents="3" format="ascii">
 0.000000000000000e+00 0.000000000000000e+00 0.000000000000000e+00 -0.000000000000000e+00 -1.725750000000000e-13 -0.000000000000000e+00 -8.628749999999999e-14 -8.628749999999999e-14 -0.000000000000000e+00 -0.000000000000000e+00 -1.725750000000000e-13 -0.000000000000000e+00 0.000000000000000e+00 0.000000000000000e+00 0.000000000000000e+00 -0.000000000000000e+00 -1.725750000000000e-13 -0.000000000000000e+00 -8.628749999999999e-14 -8.628749999999999e-14 -0.000000000000000e+00 0.000000000000000e+00 0.000000000000000e+00 0.000000000000000e+00 -0.000000000000000e+00 -1.725750000000000e-13 -0.000000000000000e+00
</DataArray>
</CellData>
</Piece>
</UnstructuredGrid>
</VTKFile>

