TITLE = "MyDevice"
VARIABLES = "x", "y", "AtContactNode", "NSurfaceNormal_x", "NSurfaceNormal_y", "NodeVolume", "Potential", "Potential_prev", "SurfaceArea", "bot_bc", "bot_bc:Potential", "coordinate_index", "node_index", "top_bc", "top_bc:Potential", "DField", "DField:Potential@n0", "DField:Potential@n1", "EdgeCouple", "EdgeInverseLength", "EdgeLength", "ElectricField", "ElectricField:Potential@n0", "ElectricField:Potential@n1", "Potential@n0", "Potential@n1", "edge_index", "unitx", "unity", "ElectricField_x", "ElectricField_y", "ElementEdgeCouple", "ElementNodeVolume"
ZONE T="air" NODES=8281, ELEMENTS=15636, DATAPACKING=BLOCK, ZONETYPE=FETRIANGLE, VARLOCATION=([30,31,32,33]=CELLCENTERED)
-25 -25 -24.975 -24.975 -25 -24.975 -25 -24.975 -25 -24.975 -25 -24.975 -25 -24.975 -25 -24.975 -25 -24.975 -25 -24.975 -25 -24.975 -25 -24.975 -25 -24.975 -25 -24.975 -25 -24.975 -25 -24.975 -25 -24.975 -25 -24.975 -25 -24.975 -25 -24.975 -25 -24.975 -25 -24.975 -25 -24.975 -25 -24.975 -25 -24.975 -25 -24.975 -25 -24.975 -25 -24.975 -25 -24.975 -25 -24.975 -25 -24.975 -25 -24.975 -25 -24.975 -25 -24.975 -25 -24.975 -25 -24.975 -25 -24.975 -25 -24.975 -25 -24.975 -25 -24.975 -25 -24.975 -25 -24.975 -25 -24.975 -25 -24.975 -25 -24.975 -25 -24.975 -25 -24.975 -25 -24.975 -25 -24.975 -22.975 -22.975 -22.975 -22.975 -22.975 -22.975 -22.975 -22.975 -22.975 -22.975 -22.975 -22.975 -22.975 -22.975 -22.975 -22.975 -22.975 -22.975 -22.975 -22.975 -22.975 -22.975 -22.975 -22.975 -22.975 -22.975 -22.975 -22.975 -22.975 -22.975 -22.975 -22.975 -22.975 -22.975 -22.975 -22.975 -22.975 -22.975 -22.975 -22.975 -22.975 -22.975 -22.975 -22.975 -22.975 -22.975 -22.975 -22.975 -22.975 -21.1451 -21.1451 -21.1451 -21.1451 -21.1451 -21.1451 -21.1451 -21.1451 -21.1451 -21.1451 -21.1451 -21.1451 -21.1451 -21.1451 -21.1451 -21.1451 -21.1451 -21.1451 -21.1451 -21.1451 -21.1451 -21.1451 -21.1451 -21.1451 -21.1451 -21.1451 -21.1451 -21.1451 -21.1451 -21.1451 -21.1451 -21.1451 -21.1451 -21.1451 -21.1451 -21.1451 -21.1451 -21.1451 -21.1451 -21.1451 -21.1451 -21.1451 -21.1451 -21.1451 -21.1451 -21.1451 -21.1451 -21.1451 -21.1451 -19.4709 -19.4709 -19.4709 -19.4709 -19.4709 -19.4709 -19.4709 -19.4709 -19.4709 -19.4709 -19.4709 -19.4709 -19.4709 -19.4709 -19.4709 -19.4709 -19.4709 -19.4709 -19.4709 -19.4709 -19.4709 -19.4709 -19.4709 -19.4709 -19.4709 -19.4709 -19.4709 -19.4709 -19.4709 -19.4709 -19.4709 -19.4709 -19.4709 -19.4709 -19.4709 -19.4709 -19.4709 -19.4709 -19.4709 -19.4709 -19.4709 -19.4709 -19.4709 -19.4709 -19.4709 -19.4709 -19.4709 -19.4709 -19.4709 -17.9391 -17.9391 -17.9391 -17.9391 -17.9391 -17.9391 -17.9391 -17.9391 -17.9391 -17.9391 -17.9391 -17.9391 -17.9391 -17.9391 -17.9391 -17.9391 -17.9391 -17.9391 -17.9391 -17.9391 -17.9391 -17.9391 -17.9391 -17.9391 -17.9391 -17.9391 -17.9391 -17.9391 -17.9391 -17.9391 -17.9391 -17.9391 -17.9391 -17.9391 -17.9391 -17.9391 -17.9391 -17.9391 -17.9391 -17.9391 -17.9391 -17.9391 -17.9391 -17.9391 -17.9391 -17.9391 -17.9391 -17.9391 -17.9391 -16.5375 -16.5375 -16.5375 -16.5375 -16.5375 -16.5375 -16.5375 -16.5375 -16.5375 -16.5375 -16.5375 -16.5375 -16.5375 -16.5375 -16.5375 -16.5375 -16.5375 -16.5375 -16.5375 -16.5375 -16.5375 -16.5375 -16.5375 -16.5375 -16.5375 -16.5375 -16.5375 -16.5375 -16.5375 -16.5375 -16.5375 -16.5375 -16.5375 -16.5375 -16.5375 -16.5375 -16.5375 -16.5375 -16.5375 -16.5375 -16.5375 -16.5375 -16.5375 -16.5375 -16.5375 -16.5375 -16.5375 -16.5375 -16.5375 -15.2552 -15.2552 -15.2552 -15.2552 -15.2552 -15.2552 -15.2552 -15.2552 -15.2552 -15.2552 -15.2552 -15.2552 -15.2552 -15.2552 -15.2552 -15.2552 -15.2552 -15.2552 -15.2552 -15.2552 -15.2552 -15.2552 -15.2552 -15.2552 -15.2552 -15.2552 -15.2552 -15.2552 -15.2552 -15.2552 -15.2552 -15.2552 -15.2552 -15.2552 -15.2552 -15.2552 -15.2552 -15.2552 -15.2552 -15.2552 -15.2552 -15.2552 -15.2552 -15.2552 -15.2552 -15.2552 -15.2552 -15.2552 -15.2552 -14.082 -14.082 -14.082 -14.082 -14.082 -14.082 -14.082 -14.082 -14.082 -14.082 -14.082 -14.082 -14.082 -14.082 -14.082 -14.082 -14.082 -14.082 -14.082 -14.082 -14.082 -14.082 -14.082 -14.082 -14.082 -14.082 -14.082 -14.082 -14.082 -14.082 -14.082 -14.082 -14.082 -14.082 -14.082 -14.082 -14.082 -14.082 -14.082 -14.082 -14.082 -14.082 -14.082 -14.082 -14.082 -14.082 -14.082 -14.082 -14.082 -13.0086 -13.0086 -13.0086 -13.0086 -13.0086 -13.0086 -13.0086 -13.0086 -13.0086 -13.0086 -13.0086 -13.0086 -13.0086 -13.0086 -13.0086 -13.0086 -13.0086 -13.0086 -13.0086 -13.0086 -13.0086 -13.0086 -13.0086 -13.0086 -13.0086 -13.0086 -13.0086 -13.0086 -13.0086 -13.0086 -13.0086 -13.0086 -13.0086 -13.0086 -13.0086 -13.0086 -13.0086 -13.0086 -13.0086 -13.0086 -13.0086 -13.0086 -13.0086 -13.0086 -13.0086 -13.0086 -13.0086 -13.0086 -13.0086 -12.0264 -12.0264 -12.0264 -12.0264 -12.0264 -12.0264 -12.0264 -12.0264 -12.0264 -12.0264 -12.0264 -12.0264 -12.0264 -12.0264 -12.0264 -12.0264 -12.0264 -12.0264 -12.0264 -12.0264 -12.0264 -12.0264 -12.0264 -12.0264 -12.0264 -12.0264 -12.0264 -12.0264 -12.0264 -12.0264 -12.0264 -12.0264 -12.0264 -12.0264 -12.0264 -12.0264 -12.0264 -12.0264 -12.0264 -12.0264 -12.0264 -12.0264 -12.0264 -12.0264 -12.0264 -12.0264 -12.0264 -12.0264 -12.0264 -11.1278 -11.1278 -11.1278 -11.1278 -11.1278 -11.1278 -11.1278 -11.1278 -11.1278 -11.1278 -11.1278 -11.1278 -11.1278 -11.1278 -11.1278 -11.1278 -11.1278 -11.1278 -11.1278 -11.1278 -11.1278 -11.1278 -11.1278 -11.1278 -11.1278 -11.1278 -11.1278 -11.1278 -11.1278 -11.1278 -11.1278 -11.1278 -11.1278 -11.1278 -11.1278 -11.1278 -11.1278 -11.1278 -11.1278 -11.1278 -11.1278 -11.1278 -11.1278 -11.1278 -11.1278 -11.1278 -11.1278 -11.1278 -11.1278 -10.3057 -10.3057 -10.3057 -10.3057 -10.3057 -10.3057 -10.3057 -10.3057 -10.3057 -10.3057 -10.3057 -10.3057 -10.3057 -10.3057 -10.3057 -10.3057 -10.3057 -10.3057 -10.3057 -10.3057 -10.3057 -10.3057 -10.3057 -10.3057 -10.3057 -10.3057 -10.3057 -10.3057 -10.3057 -10.3057 -10.3057 -10.3057 -10.3057 -10.3057 -10.3057 -10.3057 -10.3057 -10.3057 -10.3057 -10.3057 -10.3057 -10.3057 -10.3057 -10.3057 -10.3057 -10.3057 -10.3057 -10.3057 -10.3057 -9.55344 -9.55344 -9.55344 -9.55344 -9.55344 -9.55344 -9.55344 -9.55344 -9.55344 -9.55344 -9.55344 -9.55344 -9.55344 -9.55344 -9.55344 -9.55344 -9.55344 -9.55344 -9.55344 -9.55344 -9.55344 -9.55344 -9.55344 -9.55344 -9.55344 -9.55344 -9.55344 -9.55344 -9.55344 -9.55344 -9.55344 -9.55344 -9.55344 -9.55344 -9.55344 -9.55344 -9.55344 -9.55344 -9.55344 -9.55344 -9.55344 -9.55344 -9.55344 -9.55344 -9.55344 -9.55344 -9.55344 -9.55344 -9.55344 -8.8652 -8.8652 -8.8652 -8.8652 -8.8652 -8.8652 -8.8652 -8.8652 -8.8652 -8.8652 -8.8652 -8.8652 -8.8652 -8.8652 -8.8652 -8.8652 -8.8652 -8.8652 -8.8652 -8.8652 -8.8652 -8.8652 -8.8652 -8.8652 -8.8652 -8.8652 -8.8652 -8.8652 -8.8652 -8.8652 -8.8652 -8.8652 -8.8652 -8.8652 -8.8652 -8.8652 -8.8652 -8.8652 -8.8652 -8.8652 -8.8652 -8.8652 -8.8652 -8.8652 -8.8652 -8.8652 -8.8652 -8.8652 -8.8652 -8.2355 -8.2355 -8.2355 -8.2355 -8.2355 -8.2355 -8.2355 -8.2355 -8.2355 -8.2355 -8.2355 -8.2355 -8.2355 -8.2355 -8.2355 -8.2355 -8.2355 -8.2355 -8.2355 -8.2355 -8.2355 -8.2355 -8.2355 -8.2355 -8.2355 -8.2355 -8.2355 -8.2355 -8.2355 -8.2355 -8.2355 -8.2355 -8.2355 -8.2355 -8.2355 -8.2355 -8.2355 -8.2355 -8.2355 -8.2355 -8.2355 -8.2355 -8.2355 -8.2355 -8.2355 -8.2355 -8.2355 -8.2355 -8.2355 -7.65936 -7.65936 -7.65936 -7.65936 -7.65936 -7.65936 -7.65936 -7.65936 -7.65936 -7.65936 -7.65936 -7.65936 -7.65936 -7.65936 -7.65936 -7.65936 -7.65936 -7.65936 -7.65936 -7.65936 -7.65936 -7.65936 -7.65936 -7.65936 -7.65936 -7.65936 -7.65936 -7.65936 -7.65936 -7.65936 -7.65936 -7.65936 -7.65936 -7.65936 -7.65936 -7.65936 -7.65936 -7.65936 -7.65936 -7.65936 -7.65936 -7.65936 -7.65936 -7.65936 -7.65936 -7.65936 -7.65936 -7.65936 -7.65936 -7.13223 -7.13223 -7.13223 -7.13223 -7.13223 -7.13223 -7.13223 -7.13223 -7.13223 -7.13223 -7.13223 -7.13223 -7.13223 -7.13223 -7.13223 -7.13223 -7.13223 -7.13223 -7.13223 -7.13223 -7.13223 -7.13223 -7.13223 -7.13223 -7.13223 -7.13223 -7.13223 -7.13223 -7.13223 -7.13223 -7.13223 -7.13223 -7.13223 -7.13223 -7.13223 -7.13223 -7.13223 -7.13223 -7.13223 -7.13223 -7.13223 -7.13223 -7.13223 -7.13223 -7.13223 -7.13223 -7.13223 -7.13223 -7.13223 -6.64993 -6.64993 -6.64993 -6.64993 -6.64993 -6.64993 -6.64993 -6.64993 -6.64993 -6.64993 -6.64993 -6.64993 -6.64993 -6.64993 -6.64993 -6.64993 -6.64993 -6.64993 -6.64993 -6.64993 -6.64993 -6.64993 -6.64993 -6.64993 -6.64993 -6.64993 -6.64993 -6.64993 -6.64993 -6.64993 -6.64993 -6.64993 -6.64993 -6.64993 -6.64993 -6.64993 -6.64993 -6.64993 -6.64993 -6.64993 -6.64993 -6.64993 -6.64993 -6.64993 -6.64993 -6.64993 -6.64993 -6.64993 -6.64993 -6.20866 -6.20866 -6.20866 -6.20866 -6.20866 -6.20866 -6.20866 -6.20866 -6.20866 -6.20866 -6.20866 -6.20866 -6.20866 -6.20866 -6.20866 -6.20866 -6.20866 -6.20866 -6.20866 -6.20866 -6.20866 -6.20866 -6.20866 -6.20866 -6.20866 -6.20866 -6.20866 -6.20866 -6.20866 -6.20866 -6.20866 -6.20866 -6.20866 -6.20866 -6.20866 -6.20866 -6.20866 -6.20866 -6.20866 -6.20866 -6.20866 -6.20866 -6.20866 -6.20866 -6.20866 -6.20866 -6.20866 -6.20866 -6.20866 -5.80493 -5.80493 -5.80493 -5.80493 -5.80493 -5.80493 -5.80493 -5.80493 -5.80493 -5.80493 -5.80493 -5.80493 -5.80493 -5.80493 -5.80493 -5.80493 -5.80493 -5.80493 -5.80493 -5.80493 -5.80493 -5.80493 -5.80493 -5.80493 -5.80493 -5.80493 -5.80493 -5.80493 -5.80493 -5.80493 -5.80493 -5.80493 -5.80493 -5.80493 -5.80493 -5.80493 -5.80493 -5.80493 -5.80493 -5.80493 -5.80493 -5.80493 -5.80493 -5.80493 -5.80493 -5.80493 -5.80493 -5.80493 -5.80493 -5.43553 -5.43553 -5.43553 -5.43553 -5.43553 -5.43553 -5.43553 -5.43553 -5.43553 -5.43553 -5.43553 -5.43553 -5.43553 -5.43553 -5.43553 -5.43553 -5.43553 -5.43553 -5.43553 -5.43553 -5.43553 -5.43553 -5.43553 -5.43553 -5.43553 -5.43553 -5.43553 -5.43553 -5.43553 -5.43553 -5.43553 -5.43553 -5.43553 -5.43553 -5.43553 -5.43553 -5.43553 -5.43553 -5.43553 -5.43553 -5.43553 -5.43553 -5.43553 -5.43553 -5.43553 -5.43553 -5.43553 -5.43553 -5.43553 -5.09756 -5.09756 -5.09756 -5.09756 -5.09756 -5.09756 -5.09756 -5.09756 -5.09756 -5.09756 -5.09756 -5.09756 -5.09756 -5.09756 -5.09756 -5.09756 -5.09756 -5.09756 -5.09756 -5.09756 -5.09756 -5.09756 -5.09756 -5.09756 -5.09756 -5.09756 -5.09756 -5.09756 -5.09756 -5.09756 -5.09756 -5.09756 -5.09756 -5.09756 -5.09756 -5.09756 -5.09756 -5.09756 -5.09756 -5.09756 -5.09756 -5.09756 -5.09756 -5.09756 -5.09756 -5.09756 -5.09756 -5.09756 -5.09756 -4.78833 -4.78833 -4.78833 -4.78833 -4.78833 -4.78833 -4.78833 -4.78833 -4.78833 -4.78833 -4.78833 -4.78833 -4.78833 -4.78833 -4.78833 -4.78833 -4.78833 -4.78833 -4.78833 -4.78833 -4.78833 -4.78833 -4.78833 -4.78833 -4.78833 -4.78833 -4.78833 -4.78833 -4.78833 -4.78833 -4.78833 -4.78833 -4.78833 -4.78833 -4.78833 -4.78833 -4.78833 -4.78833 -4.78833 -4.78833 -4.78833 -4.78833 -4.78833 -4.78833 -4.78833 -4.78833 -4.78833 -4.78833 -4.78833 -4.50541 -4.50541 -4.50541 -4.50541 -4.50541 -4.50541 -4.50541 -4.50541 -4.50541 -4.50541 -4.50541 -4.50541 -4.50541 -4.50541 -4.50541 -4.50541 -4.50541 -4.50541 -4.50541 -4.50541 -4.50541 -4.50541 -4.50541 -4.50541 -4.50541 -4.50541 -4.50541 -4.50541 -4.50541 -4.50541 -4.50541 -4.50541 -4.50541 -4.50541 -4.50541 -4.50541 -4.50541 -4.50541 -4.50541 -4.50541 -4.50541 -4.50541 -4.50541 -4.50541 -4.50541 -4.50541 -4.50541 -4.50541 -4.50541 -4.24655 -4.24655 -4.24655 -4.24655 -4.24655 -4.24655 -4.24655 -4.24655 -4.24655 -4.24655 -4.24655 -4.24655 -4.24655 -4.24655 -4.24655 -4.24655 -4.24655 -4.24655 -4.24655 -4.24655 -4.24655 -4.24655 -4.24655 -4.24655 -4.24655 -4.24655 -4.24655 -4.24655 -4.24655 -4.24655 -4.24655 -4.24655 -4.24655 -4.24655 -4.24655 -4.24655 -4.24655 -4.24655 -4.24655 -4.24655 -4.24655 -4.24655 -4.24655 -4.24655 -4.24655 -4.24655 -4.24655 -4.24655 -4.24655 -4.00972 -4.00972 -4.00972 -4.00972 -4.00972 -4.00972 -4.00972 -4.00972 -4.00972 -4.00972 -4.00972 -4.00972 -4.00972 -4.00972 -4.00972 -4.00972 -4.00972 -4.00972 -4.00972 -4.00972 -4.00972 -4.00972 -4.00972 -4.00972 -4.00972 -4.00972 -4.00972 -4.00972 -4.00972 -4.00972 -4.00972 -4.00972 -4.00972 -4.00972 -4.00972 -4.00972 -4.00972 -4.00972 -4.00972 -4.00972 -4.00972 -4.00972 -4.00972 -4.00972 -4.00972 -4.00972 -4.00972 -4.00972 -4.00972 -3.79302 -3.79302 -3.79302 -3.79302 -3.79302 -3.79302 -3.79302 -3.79302 -3.79302 -3.79302 -3.79302 -3.79302 -3.79302 -3.79302 -3.79302 -3.79302 -3.79302 -3.79302 -3.79302 -3.79302 -3.79302 -3.79302 -3.79302 -3.79302 -3.79302 -3.79302 -3.79302 -3.79302 -3.79302 -3.79302 -3.79302 -3.79302 -3.79302 -3.79302 -3.79302 -3.79302 -3.79302 -3.79302 -3.79302 -3.79302 -3.79302 -3.79302 -3.79302 -3.79302 -3.79302 -3.79302 -3.79302 -3.79302 -3.79302 -3.59476 -3.59476 -3.59476 -3.59476 -3.59476 -3.59476 -3.59476 -3.59476 -3.59476 -3.59476 -3.59476 -3.59476 -3.59476 -3.59476 -3.59476 -3.59476 -3.59476 -3.59476 -3.59476 -3.59476 -3.59476 -3.59476 -3.59476 -3.59476 -3.59476 -3.59476 -3.59476 -3.59476 -3.59476 -3.59476 -3.59476 -3.59476 -3.59476 -3.59476 -3.59476 -3.59476 -3.59476 -3.59476 -3.59476 -3.59476 -3.59476 -3.59476 -3.59476 -3.59476 -3.59476 -3.59476 -3.59476 -3.59476 -3.59476 -3.41336 -3.41336 -3.41336 -3.41336 -3.41336 -3.41336 -3.41336 -3.41336 -3.41336 -3.41336 -3.41336 -3.41336 -3.41336 -3.41336 -3.41336 -3.41336 -3.41336 -3.41336 -3.41336 -3.41336 -3.41336 -3.41336 -3.41336 -3.41336 -3.41336 -3.41336 -3.41336 -3.41336 -3.41336 -3.41336 -3.41336 -3.41336 -3.41336 -3.41336 -3.41336 -3.41336 -3.41336 -3.41336 -3.41336 -3.41336 -3.41336 -3.41336 -3.41336 -3.41336 -3.41336 -3.41336 -3.41336 -3.41336 -3.41336 -3.2474 -3.2474 -3.2474 -3.2474 -3.2474 -3.2474 -3.2474 -3.2474 -3.2474 -3.2474 -3.2474 -3.2474 -3.2474 -3.2474 -3.2474 -3.2474 -3.2474 -3.2474 -3.2474 -3.2474 -3.2474 -3.2474 -3.2474 -3.2474 -3.2474 -3.2474 -3.2474 -3.2474 -3.2474 -3.2474 -3.2474 -3.2474 -3.2474 -3.2474 -3.2474 -3.2474 -3.2474 -3.2474 -3.2474 -3.2474 -3.2474 -3.2474 -3.2474 -3.2474 -3.2474 -3.2474 -3.2474 -3.2474 -3.2474 -3.09555 -3.09555 -3.09555 -3.09555 -3.09555 -3.09555 -3.09555 -3.09555 -3.09555 -3.09555 -3.09555 -3.09555 -3.09555 -3.09555 -3.09555 -3.09555 -3.09555 -3.09555 -3.09555 -3.09555 -3.09555 -3.09555 -3.09555 -3.09555 -3.09555 -3.09555 -3.09555 -3.09555 -3.09555 -3.09555 -3.09555 -3.09555 -3.09555 -3.09555 -3.09555 -3.09555 -3.09555 -3.09555 -3.09555 -3.09555 -3.09555 -3.09555 -3.09555 -3.09555 -3.09555 -3.09555 -3.09555 -3.09555 -3.09555 -2.95661 -2.95661 -2.95661 -2.95661 -2.95661 -2.95661 -2.95661 -2.95661 -2.95661 -2.95661 -2.95661 -2.95661 -2.95661 -2.95661 -2.95661 -2.95661 -2.95661 -2.95661 -2.95661 -2.95661 -2.95661 -2.95661 -2.95661 -2.95661 -2.95661 -2.95661 -2.95661 -2.95661 -2.95661 -2.95661 -2.95661 -2.95661 -2.95661 -2.95661 -2.95661 -2.95661 -2.95661 -2.95661 -2.95661 -2.95661 -2.95661 -2.95661 -2.95661 -2.95661 -2.95661 -2.95661 -2.95661 -2.95661 -2.95661 -2.82949 -2.82949 -2.82949 -2.82949 -2.82949 -2.82949 -2.82949 -2.82949 -2.82949 -2.82949 -2.82949 -2.82949 -2.82949 -2.82949 -2.82949 -2.82949 -2.82949 -2.82949 -2.82949 -2.82949 -2.82949 -2.82949 -2.82949 -2.82949 -2.82949 -2.82949 -2.82949 -2.82949 -2.82949 -2.82949 -2.82949 -2.82949 -2.82949 -2.82949 -2.82949 -2.82949 -2.82949 -2.82949 -2.82949 -2.82949 -2.82949 -2.82949 -2.82949 -2.82949 -2.82949 -2.82949 -2.82949 -2.82949 -2.82949 -2.71319 -2.71319 -2.71319 -2.71319 -2.71319 -2.71319 -2.71319 -2.71319 -2.71319 -2.71319 -2.71319 -2.71319 -2.71319 -2.71319 -2.71319 -2.71319 -2.71319 -2.71319 -2.71319 -2.71319 -2.71319 -2.71319 -2.71319 -2.71319 -2.71319 -2.71319 -2.71319 -2.71319 -2.71319 -2.71319 -2.71319 -2.71319 -2.71319 -2.71319 -2.71319 -2.71319 -2.71319 -2.71319 -2.71319 -2.71319 -2.71319 -2.71319 -2.71319 -2.71319 -2.71319 -2.71319 -2.71319 -2.71319 -2.71319 -2.60678 -2.60678 -2.60678 -2.60678 -2.60678 -2.60678 -2.60678 -2.60678 -2.60678 -2.60678 -2.60678 -2.60678 -2.60678 -2.60678 -2.60678 -2.60678 -2.60678 -2.60678 -2.60678 -2.60678 -2.60678 -2.60678 -2.60678 -2.60678 -2.60678 -2.60678 -2.60678 -2.60678 -2.60678 -2.60678 -2.60678 -2.60678 -2.60678 -2.60678 -2.60678 -2.60678 -2.60678 -2.60678 -2.60678 -2.60678 -2.60678 -2.60678 -2.60678 -2.60678 -2.60678 -2.60678 -2.60678 -2.60678 -2.60678 -2.50942 -2.50942 -2.50942 -2.50942 -2.50942 -2.50942 -2.50942 -2.50942 -2.50942 -2.50942 -2.50942 -2.50942 -2.50942 -2.50942 -2.50942 -2.50942 -2.50942 -2.50942 -2.50942 -2.50942 -2.50942 -2.50942 -2.50942 -2.50942 -2.50942 -2.50942 -2.50942 -2.50942 -2.50942 -2.50942 -2.50942 -2.50942 -2.50942 -2.50942 -2.50942 -2.50942 -2.50942 -2.50942 -2.50942 -2.50942 -2.50942 -2.50942 -2.50942 -2.50942 -2.50942 -2.50942 -2.50942 -2.50942 -2.50942 -2.42034 -2.42034 -2.42034 -2.42034 -2.42034 -2.42034 -2.42034 -2.42034 -2.42034 -2.42034 -2.42034 -2.42034 -2.42034 -2.42034 -2.42034 -2.42034 -2.42034 -2.42034 -2.42034 -2.42034 -2.42034 -2.42034 -2.42034 -2.42034 -2.42034 -2.42034 -2.42034 -2.42034 -2.42034 -2.42034 -2.42034 -2.42034 -2.42034 -2.42034 -2.42034 -2.42034 -2.42034 -2.42034 -2.42034 -2.42034 -2.42034 -2.42034 -2.42034 -2.42034 -2.42034 -2.42034 -2.42034 -2.42034 -2.42034 -2.33884 -2.33884 -2.33884 -2.33884 -2.33884 -2.33884 -2.33884 -2.33884 -2.33884 -2.33884 -2.33884 -2.33884 -2.33884 -2.33884 -2.33884 -2.33884 -2.33884 -2.33884 -2.33884 -2.33884 -2.33884 -2.33884 -2.33884 -2.33884 -2.33884 -2.33884 -2.33884 -2.33884 -2.33884 -2.33884 -2.33884 -2.33884 -2.33884 -2.33884 -2.33884 -2.33884 -2.33884 -2.33884 -2.33884 -2.33884 -2.33884 -2.33884 -2.33884 -2.33884 -2.33884 -2.33884 -2.33884 -2.33884 -2.33884 -2.26427 -2.26427 -2.26427 -2.26427 -2.26427 -2.26427 -2.26427 -2.26427 -2.26427 -2.26427 -2.26427 -2.26427 -2.26427 -2.26427 -2.26427 -2.26427 -2.26427 -2.26427 -2.26427 -2.26427 -2.26427 -2.26427 -2.26427 -2.26427 -2.26427 -2.26427 -2.26427 -2.26427 -2.26427 -2.26427 -2.26427 -2.26427 -2.26427 -2.26427 -2.26427 -2.26427 -2.26427 -2.26427 -2.26427 -2.26427 -2.26427 -2.26427 -2.26427 -2.26427 -2.26427 -2.26427 -2.26427 -2.26427 -2.26427 -2.19605 -2.19605 -2.19605 -2.19605 -2.19605 -2.19605 -2.19605 -2.19605 -2.19605 -2.19605 -2.19605 -2.19605 -2.19605 -2.19605 -2.19605 -2.19605 -2.19605 -2.19605 -2.19605 -2.19605 -2.19605 -2.19605 -2.19605 -2.19605 -2.19605 -2.19605 -2.19605 -2.19605 -2.19605 -2.19605 -2.19605 -2.19605 -2.19605 -2.19605 -2.19605 -2.19605 -2.19605 -2.19605 -2.19605 -2.19605 -2.19605 -2.19605 -2.19605 -2.19605 -2.19605 -2.19605 -2.19605 -2.19605 -2.19605 -2.13362 -2.13362 -2.13362 -2.13362 -2.13362 -2.13362 -2.13362 -2.13362 -2.13362 -2.13362 -2.13362 -2.13362 -2.13362 -2.13362 -2.13362 -2.13362 -2.13362 -2.13362 -2.13362 -2.13362 -2.13362 -2.13362 -2.13362 -2.13362 -2.13362 -2.13362 -2.13362 -2.13362 -2.13362 -2.13362 -2.13362 -2.13362 -2.13362 -2.13362 -2.13362 -2.13362 -2.13362 -2.13362 -2.13362 -2.13362 -2.13362 -2.13362 -2.13362 -2.13362 -2.13362 -2.13362 -2.13362 -2.13362 -2.13362 -2.07651 -2.07651 -2.07651 -2.07651 -2.07651 -2.07651 -2.07651 -2.07651 -2.07651 -2.07651 -2.07651 -2.07651 -2.07651 -2.07651 -2.07651 -2.07651 -2.07651 -2.07651 -2.07651 -2.07651 -2.07651 -2.07651 -2.07651 -2.07651 -2.07651 -2.07651 -2.07651 -2.07651 -2.07651 -2.07651 -2.07651 -2.07651 -2.07651 -2.07651 -2.07651 -2.07651 -2.07651 -2.07651 -2.07651 -2.07651 -2.07651 -2.07651 -2.07651 -2.07651 -2.07651 -2.07651 -2.07651 -2.07651 -2.07651 -2.02426 -2.02426 -2.02426 -2.02426 -2.02426 -2.02426 -2.02426 -2.02426 -2.02426 -2.02426 -2.02426 -2.02426 -2.02426 -2.02426 -2.02426 -2.02426 -2.02426 -2.02426 -2.02426 -2.02426 -2.02426 -2.02426 -2.02426 -2.02426 -2.02426 -2.02426 -2.02426 -2.02426 -2.02426 -2.02426 -2.02426 -2.02426 -2.02426 -2.02426 -2.02426 -2.02426 -2.02426 -2.02426 -2.02426 -2.02426 -2.02426 -2.02426 -2.02426 -2.02426 -2.02426 -2.02426 -2.02426 -2.02426 -2.02426 -2 -2 -2 -2 -2 -2 -2 -2 -2 -2 -2 -2 -2 -2 -2 -2 -2 -2 -2 -2 -2 -2 -2 -2 -2 -2 -2 -2 -2 -2 -2 -2 -2 -2 -2 -2 -2 -2 -2 -2 -2 -2 -2 -2 -2 -2 -2 -2 -2 -1.95 -1.95 -1.95 -1.95 -1.95 -1.95 -1.95 -1.95 -1.95 -1.95 -1.95 -1.95 -1.95 -1.95 -1.95 -1.95 -1.95 -1.95 -1.95 -1.95 -1.95 -1.95 -1.95 -1.95 -1.95 -1.95 -1.95 -1.95 -1.95 -1.95 -1.95 -1.95 -1.95 -1.95 -1.95 -1.95 -1.95 -1.95 -1.95 -1.95 -1.95 -1.95 -1.95 -1.95 -1.95 -1.95 -1.95 -1.95 -1.95 -1.9 -1.9 -1.9 -1.9 -1.9 -1.9 -1.9 -1.9 -1.9 -1.9 -1.9 -1.9 -1.9 -1.9 -1.9 -1.9 -1.9 -1.9 -1.9 -1.9 -1.9 -1.9 -1.9 -1.9 -1.9 -1.9 -1.9 -1.9 -1.9 -1.9 -1.9 -1.9 -1.9 -1.9 -1.9 -1.9 -1.9 -1.9 -1.9 -1.9 -1.9 -1.9 -1.9 -1.9 -1.9 -1.9 -1.9 -1.9 -1.9 -1.85 -1.85 -1.85 -1.85 -1.85 -1.85 -1.85 -1.85 -1.85 -1.85 -1.85 -1.85 -1.85 -1.85 -1.85 -1.85 -1.85 -1.85 -1.85 -1.85 -1.85 -1.85 -1.85 -1.85 -1.85 -1.85 -1.85 -1.85 -1.85 -1.85 -1.85 -1.85 -1.85 -1.85 -1.85 -1.85 -1.85 -1.85 -1.85 -1.85 -1.85 -1.85 -1.85 -1.85 -1.85 -1.85 -1.85 -1.85 -1.85 -1.8 -1.8 -1.8 -1.8 -1.8 -1.8 -1.8 -1.8 -1.8 -1.8 -1.8 -1.8 -1.8 -1.8 -1.8 -1.8 -1.8 -1.8 -1.8 -1.8 -1.8 -1.8 -1.8 -1.8 -1.8 -1.8 -1.8 -1.8 -1.8 -1.8 -1.8 -1.8 -1.8 -1.8 -1.8 -1.8 -1.8 -1.8 -1.8 -1.8 -1.8 -1.8 -1.8 -1.8 -1.8 -1.8 -1.8 -1.8 -1.8 -1.75 -1.75 -1.75 -1.75 -1.75 -1.75 -1.75 -1.75 -1.75 -1.75 -1.75 -1.75 -1.75 -1.75 -1.75 -1.75 -1.75 -1.75 -1.75 -1.75 -1.75 -1.75 -1.75 -1.75 -1.75 -1.75 -1.75 -1.75 -1.75 -1.75 -1.75 -1.75 -1.75 -1.75 -1.75 -1.75 -1.75 -1.75 -1.75 -1.75 -1.75 -1.75 -1.75 -1.75 -1.75 -1.75 -1.75 -1.75 -1.75 -1.7 -1.7 -1.7 -1.7 -1.7 -1.7 -1.7 -1.7 -1.7 -1.7 -1.7 -1.7 -1.7 -1.7 -1.7 -1.7 -1.7 -1.7 -1.7 -1.7 -1.7 -1.7 -1.7 -1.7 -1.7 -1.7 -1.7 -1.7 -1.7 -1.7 -1.7 -1.7 -1.7 -1.7 -1.7 -1.7 -1.7 -1.7 -1.7 -1.7 -1.7 -1.7 -1.7 -1.7 -1.7 -1.7 -1.7 -1.7 -1.7 -1.65 -1.65 -1.65 -1.65 -1.65 -1.65 -1.65 -1.65 -1.65 -1.65 -1.65 -1.65 -1.65 -1.65 -1.65 -1.65 -1.65 -1.65 -1.65 -1.65 -1.65 -1.65 -1.65 -1.65 -1.65 -1.65 -1.65 -1.65 -1.65 -1.65 -1.65 -1.65 -1.65 -1.65 -1.65 -1.65 -1.65 -1.65 -1.65 -1.65 -1.65 -1.65 -1.65 -1.65 -1.65 -1.65 -1.65 -1.65 -1.65 -1.6 -1.6 -1.6 -1.6 -1.6 -1.6 -1.6 -1.6 -1.6 -1.6 -1.6 -1.6 -1.6 -1.6 -1.6 -1.6 -1.6 -1.6 -1.6 -1.6 -1.6 -1.6 -1.6 -1.6 -1.6 -1.6 -1.6 -1.6 -1.6 -1.6 -1.6 -1.6 -1.6 -1.6 -1.6 -1.6 -1.6 -1.6 -1.6 -1.6 -1.6 -1.6 -1.6 -1.6 -1.6 -1.6 -1.6 -1.6 -1.6 -1.55 -1.55 -1.55 -1.55 -1.55 -1.55 -1.55 -1.55 -1.55 -1.55 -1.55 -1.55 -1.55 -1.55 -1.55 -1.55 -1.55 -1.55 -1.55 -1.55 -1.55 -1.55 -1.55 -1.55 -1.55 -1.55 -1.55 -1.55 -1.55 -1.55 -1.55 -1.55 -1.55 -1.55 -1.55 -1.55 -1.55 -1.55 -1.55 -1.55 -1.55 -1.55 -1.55 -1.55 -1.55 -1.55 -1.55 -1.55 -1.55 -1.5 -1.5 -1.5 -1.5 -1.5 -1.5 -1.5 -1.5 -1.5 -1.5 -1.5 -1.5 -1.5 -1.5 -1.5 -1.5 -1.5 -1.5 -1.5 -1.5 -1.5 -1.5 -1.5 -1.5 -1.5 -1.5 -1.5 -1.5 -1.5 -1.5 -1.5 -1.5 -1.5 -1.5 -1.5 -1.5 -1.5 -1.5 -1.5 -1.5 -1.5 -1.5 -1.5 -1.5 -1.5 -1.5 -1.5 -1.5 -1.5 -1.45 -1.45 -1.45 -1.45 -1.45 -1.45 -1.45 -1.45 -1.45 -1.45 -1.45 -1.45 -1.45 -1.45 -1.45 -1.45 -1.45 -1.45 -1.45 -1.45 -1.45 -1.45 -1.45 -1.45 -1.45 -1.45 -1.45 -1.45 -1.45 -1.45 -1.45 -1.45 -1.45 -1.45 -1.45 -1.45 -1.45 -1.45 -1.45 -1.45 -1.45 -1.45 -1.45 -1.45 -1.45 -1.45 -1.45 -1.45 -1.45 -1.4 -1.4 -1.4 -1.4 -1.4 -1.4 -1.4 -1.4 -1.4 -1.4 -1.4 -1.4 -1.4 -1.4 -1.4 -1.4 -1.4 -1.4 -1.4 -1.4 -1.4 -1.4 -1.4 -1.4 -1.4 -1.4 -1.4 -1.4 -1.4 -1.4 -1.4 -1.4 -1.4 -1.4 -1.4 -1.4 -1.4 -1.4 -1.4 -1.4 -1.4 -1.4 -1.4 -1.4 -1.4 -1.4 -1.4 -1.4 -1.4 -1.35 -1.35 -1.35 -1.35 -1.35 -1.35 -1.35 -1.35 -1.35 -1.35 -1.35 -1.35 -1.35 -1.35 -1.35 -1.35 -1.35 -1.35 -1.35 -1.35 -1.35 -1.35 -1.35 -1.35 -1.35 -1.35 -1.35 -1.35 -1.35 -1.35 -1.35 -1.35 -1.35 -1.35 -1.35 -1.35 -1.35 -1.35 -1.35 -1.35 -1.35 -1.35 -1.35 -1.35 -1.35 -1.35 -1.35 -1.35 -1.35 -1.3 -1.3 -1.3 -1.3 -1.3 -1.3 -1.3 -1.3 -1.3 -1.3 -1.3 -1.3 -1.3 -1.3 -1.3 -1.3 -1.3 -1.3 -1.3 -1.3 -1.3 -1.3 -1.3 -1.3 -1.3 -1.3 -1.3 -1.3 -1.3 -1.3 -1.3 -1.3 -1.3 -1.3 -1.3 -1.3 -1.3 -1.3 -1.3 -1.3 -1.3 -1.3 -1.3 -1.3 -1.3 -1.3 -1.3 -1.3 -1.3 -1.25 -1.25 -1.25 -1.25 -1.25 -1.25 -1.25 -1.25 -1.25 -1.25 -1.25 -1.25 -1.25 -1.25 -1.25 -1.25 -1.25 -1.25 -1.25 -1.25 -1.25 -1.25 -1.25 -1.25 -1.25 -1.25 -1.25 -1.25 -1.25 -1.25 -1.25 -1.25 -1.25 -1.25 -1.25 -1.25 -1.25 -1.25 -1.25 -1.25 -1.25 -1.25 -1.25 -1.25 -1.25 -1.25 -1.25 -1.25 -1.25 -1.2 -1.2 -1.2 -1.2 -1.2 -1.2 -1.2 -1.2 -1.2 -1.2 -1.2 -1.2 -1.2 -1.2 -1.2 -1.2 -1.2 -1.2 -1.2 -1.2 -1.2 -1.2 -1.2 -1.2 -1.2 -1.2 -1.2 -1.2 -1.2 -1.2 -1.2 -1.2 -1.2 -1.2 -1.2 -1.2 -1.2 -1.2 -1.2 -1.2 -1.2 -1.2 -1.2 -1.2 -1.2 -1.2 -1.2 -1.2 -1.2 -1.15 -1.15 -1.15 -1.15 -1.15 -1.15 -1.15 -1.15 -1.15 -1.15 -1.15 -1.15 -1.15 -1.15 -1.15 -1.15 -1.15 -1.15 -1.15 -1.15 -1.15 -1.15 -1.15 -1.15 -1.15 -1.15 -1.15 -1.15 -1.15 -1.15 -1.15 -1.15 -1.15 -1.15 -1.15 -1.15 -1.15 -1.15 -1.15 -1.15 -1.15 -1.15 -1.15 -1.15 -1.15 -1.15 -1.15 -1.15 -1.15 -1.1 -1.1 -1.1 -1.1 -1.1 -1.1 -1.1 -1.1 -1.1 -1.1 -1.1 -1.1 -1.1 -1.1 -1.1 -1.1 -1.1 -1.1 -1.1 -1.1 -1.1 -1.1 -1.1 -1.1 -1.1 -1.1 -1.1 -1.1 -1.1 -1.1 -1.1 -1.1 -1.1 -1.1 -1.1 -1.1 -1.1 -1.1 -1.1 -1.1 -1.1 -1.1 -1.1 -1.1 -1.1 -1.1 -1.1 -1.1 -1.1 -1.05 -1.05 -1.05 -1.05 -1.05 -1.05 -1.05 -1.05 -1.05 -1.05 -1.05 -1.05 -1.05 -1.05 -1.05 -1.05 -1.05 -1.05 -1.05 -1.05 -1.05 -1.05 -1.05 -1.05 -1.05 -1.05 -1.05 -1.05 -1.05 -1.05 -1.05 -1.05 -1.05 -1.05 -1.05 -1.05 -1.05 -1.05 -1.05 -1.05 -1.05 -1.05 -1.05 -1.05 -1.05 -1.05 -1.05 -1.05 -1.05 -1 -1 -1 -1 -1 -1 -1 -1 -1 -1 -1 -1 -1 -1 -1 -1 -1 -1 -1 -1 -1 -1 -1 -1 -1 -1 -1 -1 -1 -1 -1 -1 -1 -1 -1 -1 -1 -1 -1 -1 -1 -1 -1 -1 -1 -1 -1 -1 -1 -0.95 -0.95 -0.95 -0.95 -0.95 -0.95 -0.95 -0.95 -0.95 -0.95 -0.95 -0.95 -0.95 -0.95 -0.95 -0.95 -0.95 -0.95 -0.95 -0.95 -0.95 -0.95 -0.95 -0.95 -0.95 -0.95 -0.95 -0.95 -0.95 -0.95 -0.95 -0.95 -0.95 -0.95 -0.95 -0.95 -0.95 -0.95 -0.95 -0.95 -0.95 -0.95 -0.95 -0.95 -0.95 -0.95 -0.95 -0.95 -0.95 -0.9 -0.9 -0.9 -0.9 -0.9 -0.9 -0.9 -0.9 -0.9 -0.9 -0.9 -0.9 -0.9 -0.9 -0.9 -0.9 -0.9 -0.9 -0.9 -0.9 -0.9 -0.9 -0.9 -0.9 -0.9 -0.9 -0.9 -0.9 -0.9 -0.9 -0.9 -0.9 -0.9 -0.9 -0.9 -0.9 -0.9 -0.9 -0.9 -0.9 -0.9 -0.9 -0.9 -0.9 -0.9 -0.9 -0.9 -0.9 -0.9 -0.85 -0.85 -0.85 -0.85 -0.85 -0.85 -0.85 -0.85 -0.85 -0.85 -0.85 -0.85 -0.85 -0.85 -0.85 -0.85 -0.85 -0.85 -0.85 -0.85 -0.85 -0.85 -0.85 -0.85 -0.85 -0.85 -0.85 -0.85 -0.85 -0.85 -0.85 -0.85 -0.85 -0.85 -0.85 -0.85 -0.85 -0.85 -0.85 -0.85 -0.85 -0.85 -0.85 -0.85 -0.85 -0.85 -0.85 -0.85 -0.85 -0.8 -0.8 -0.8 -0.8 -0.8 -0.8 -0.8 -0.8 -0.8 -0.8 -0.8 -0.8 -0.8 -0.8 -0.8 -0.8 -0.8 -0.8 -0.8 -0.8 -0.8 -0.8 -0.8 -0.8 -0.8 -0.8 -0.8 -0.8 -0.8 -0.8 -0.8 -0.8 -0.8 -0.8 -0.8 -0.8 -0.8 -0.8 -0.8 -0.8 -0.8 -0.8 -0.8 -0.8 -0.8 -0.8 -0.8 -0.8 -0.8 -0.75 -0.75 -0.75 -0.75 -0.75 -0.75 -0.75 -0.75 -0.75 -0.75 -0.75 -0.75 -0.75 -0.75 -0.75 -0.75 -0.75 -0.75 -0.75 -0.75 -0.75 -0.75 -0.75 -0.75 -0.75 -0.75 -0.75 -0.75 -0.75 -0.75 -0.75 -0.75 -0.75 -0.75 -0.75 -0.75 -0.75 -0.75 -0.75 -0.75 -0.75 -0.75 -0.75 -0.75 -0.75 -0.75 -0.75 -0.75 -0.75 -0.7 -0.7 -0.7 -0.7 -0.7 -0.7 -0.7 -0.7 -0.7 -0.7 -0.7 -0.7 -0.7 -0.7 -0.7 -0.7 -0.7 -0.7 -0.7 -0.7 -0.7 -0.7 -0.7 -0.7 -0.7 -0.7 -0.7 -0.7 -0.7 -0.7 -0.7 -0.7 -0.7 -0.7 -0.7 -0.7 -0.7 -0.7 -0.7 -0.7 -0.7 -0.7 -0.7 -0.7 -0.7 -0.7 -0.7 -0.7 -0.7 -0.65 -0.65 -0.65 -0.65 -0.65 -0.65 -0.65 -0.65 -0.65 -0.65 -0.65 -0.65 -0.65 -0.65 -0.65 -0.65 -0.65 -0.65 -0.65 -0.65 -0.65 -0.65 -0.65 -0.65 -0.65 -0.65 -0.65 -0.65 -0.65 -0.65 -0.65 -0.65 -0.65 -0.65 -0.65 -0.65 -0.65 -0.65 -0.65 -0.65 -0.65 -0.65 -0.65 -0.65 -0.65 -0.65 -0.65 -0.65 -0.65 -0.6 -0.6 -0.6 -0.6 -0.6 -0.6 -0.6 -0.6 -0.6 -0.6 -0.6 -0.6 -0.6 -0.6 -0.6 -0.6 -0.6 -0.6 -0.6 -0.6 -0.6 -0.6 -0.6 -0.6 -0.6 -0.6 -0.6 -0.6 -0.6 -0.6 -0.6 -0.6 -0.6 -0.6 -0.6 -0.6 -0.6 -0.6 -0.6 -0.6 -0.6 -0.6 -0.6 -0.6 -0.6 -0.6 -0.6 -0.6 -0.6 -0.55 -0.55 -0.55 -0.55 -0.55 -0.55 -0.55 -0.55 -0.55 -0.55 -0.55 -0.55 -0.55 -0.55 -0.55 -0.55 -0.55 -0.55 -0.55 -0.55 -0.55 -0.55 -0.55 -0.55 -0.55 -0.55 -0.55 -0.55 -0.55 -0.55 -0.55 -0.55 -0.55 -0.55 -0.55 -0.55 -0.55 -0.55 -0.55 -0.55 -0.55 -0.55 -0.55 -0.55 -0.55 -0.55 -0.55 -0.55 -0.55 -0.5 -0.5 -0.5 -0.5 -0.5 -0.5 -0.5 -0.5 -0.5 -0.5 -0.5 -0.5 -0.5 -0.5 -0.5 -0.5 -0.5 -0.5 -0.5 -0.5 -0.5 -0.5 -0.5 -0.5 -0.5 -0.5 -0.5 -0.5 -0.5 -0.5 -0.5 -0.5 -0.5 -0.5 -0.5 -0.5 -0.5 -0.5 -0.5 -0.5 -0.5 -0.5 -0.5 -0.5 -0.5 -0.5 -0.5 -0.5 -0.5 -0.45 -0.45 -0.45 -0.45 -0.45 -0.45 -0.45 -0.45 -0.45 -0.45 -0.45 -0.45 -0.45 -0.45 -0.45 -0.45 -0.45 -0.45 -0.45 -0.45 -0.45 -0.45 -0.45 -0.45 -0.45 -0.45 -0.45 -0.45 -0.45 -0.45 -0.45 -0.45 -0.45 -0.45 -0.45 -0.45 -0.45 -0.45 -0.45 -0.45 -0.45 -0.45 -0.45 -0.45 -0.45 -0.45 -0.45 -0.45 -0.45 -0.4 -0.4 -0.4 -0.4 -0.4 -0.4 -0.4 -0.4 -0.4 -0.4 -0.4 -0.4 -0.4 -0.4 -0.4 -0.4 -0.4 -0.4 -0.4 -0.4 -0.4 -0.4 -0.4 -0.4 -0.4 -0.4 -0.4 -0.4 -0.4 -0.4 -0.4 -0.4 -0.4 -0.4 -0.4 -0.4 -0.4 -0.4 -0.4 -0.4 -0.4 -0.4 -0.4 -0.4 -0.4 -0.4 -0.4 -0.4 -0.4 -0.35 -0.35 -0.35 -0.35 -0.35 -0.35 -0.35 -0.35 -0.35 -0.35 -0.35 -0.35 -0.35 -0.35 -0.35 -0.35 -0.35 -0.35 -0.35 -0.35 -0.35 -0.35 -0.35 -0.35 -0.35 -0.35 -0.35 -0.35 -0.35 -0.35 -0.35 -0.35 -0.35 -0.35 -0.35 -0.35 -0.35 -0.35 -0.35 -0.35 -0.35 -0.35 -0.35 -0.35 -0.35 -0.35 -0.35 -0.35 -0.35 -0.3 -0.3 -0.3 -0.3 -0.3 -0.3 -0.3 -0.3 -0.3 -0.3 -0.3 -0.3 -0.3 -0.3 -0.3 -0.3 -0.3 -0.3 -0.3 -0.3 -0.3 -0.3 -0.3 -0.3 -0.3 -0.3 -0.3 -0.3 -0.3 -0.3 -0.3 -0.3 -0.3 -0.3 -0.3 -0.3 -0.3 -0.3 -0.3 -0.3 -0.3 -0.3 -0.3 -0.3 -0.3 -0.3 -0.3 -0.3 -0.3 -0.25 -0.25 -0.25 -0.25 -0.25 -0.25 -0.25 -0.25 -0.25 -0.25 -0.25 -0.25 -0.25 -0.25 -0.25 -0.25 -0.25 -0.25 -0.25 -0.25 -0.25 -0.25 -0.25 -0.25 -0.25 -0.25 -0.25 -0.25 -0.25 -0.25 -0.25 -0.25 -0.25 -0.25 -0.25 -0.25 -0.25 -0.25 -0.25 -0.25 -0.25 -0.25 -0.25 -0.25 -0.25 -0.25 -0.25 -0.25 -0.25 -0.2 -0.2 -0.2 -0.2 -0.2 -0.2 -0.2 -0.2 -0.2 -0.2 -0.2 -0.2 -0.2 -0.2 -0.2 -0.2 -0.2 -0.2 -0.2 -0.2 -0.2 -0.2 -0.2 -0.2 -0.2 -0.2 -0.2 -0.2 -0.2 -0.2 -0.2 -0.2 -0.2 -0.2 -0.2 -0.2 -0.2 -0.2 -0.2 -0.2 -0.2 -0.2 -0.2 -0.2 -0.2 -0.2 -0.2 -0.2 -0.2 -0.15 -0.15 -0.15 -0.15 -0.15 -0.15 -0.15 -0.15 -0.15 -0.15 -0.15 -0.15 -0.15 -0.15 -0.15 -0.15 -0.15 -0.15 -0.15 -0.15 -0.15 -0.15 -0.15 -0.15 -0.15 -0.15 -0.15 -0.15 -0.15 -0.15 -0.15 -0.15 -0.15 -0.15 -0.15 -0.15 -0.15 -0.15 -0.15 -0.15 -0.15 -0.15 -0.15 -0.15 -0.15 -0.15 -0.15 -0.15 -0.15 -0.1 -0.1 -0.1 -0.1 -0.1 -0.1 -0.1 -0.1 -0.1 -0.1 -0.1 -0.1 -0.1 -0.1 -0.1 -0.1 -0.1 -0.1 -0.1 -0.1 -0.1 -0.1 -0.1 -0.1 -0.1 -0.1 -0.1 -0.1 -0.1 -0.1 -0.1 -0.1 -0.1 -0.1 -0.1 -0.1 -0.1 -0.1 -0.1 -0.1 -0.1 -0.1 -0.1 -0.1 -0.1 -0.1 -0.1 -0.1 -0.1 -0.05 -0.05 -0.05 -0.05 -0.05 -0.05 -0.05 -0.05 -0.05 -0.05 -0.05 -0.05 -0.05 -0.05 -0.05 -0.05 -0.05 -0.05 -0.05 -0.05 -0.05 -0.05 -0.05 -0.05 -0